

4224 atoms
4 atom types
5184 bonds
6 bond types
9984 angles
9 angle types
7680 dihedrals
3 dihedral types
4608 impropers
1 improper types

-0.16683920482112793 52.77443920482114 xlo xhi
-0.16683920482112793 52.77443920482114 ylo yhi
-0.16683920482112793 52.77443920482114 zlo zhi
0 0 0 xy xz yz

Masses

    1    15.999400000 # O_2
    2    63.546000000 # Cu4+2
    3    12.010700000 # C_R
    4     1.007940000 # H_

Bond Coeffs

    1      714.557442        1.269010  # O_2 C_R
    2      221.999373        2.029549  # O_2 Cu4+2
    3       70.296579        3.032715  # Cu4+2 Cu4+2
    4      357.440381        1.081418  # C_R H_
    5      462.655054        1.379256  # C_R C_R
    6      391.669513        1.458000  # C_R C_R

Angle Coeffs

    1       77.210179              -1               3 # C_R O_2 Cu4+2
    2       52.958227               1               4 # O_2 Cu4+2 Cu4+2
    3      111.434476               1               4 # O_2 Cu4+2 O_2
    4       57.289016              -1               3 # H_ C_R C_R
    5      111.297508              -1               3 # C_R C_R C_R
    6      102.183280              -1               3 # C_R C_R C_R
    7      206.778426              -1               3 # O_2 C_R O_2
    8      137.714246              -1               3 # O_2 C_R C_R
    9       79.929261              -1               3 # O_2 C_R H_

Dihedral Coeffs

    1        6.737110              -1               2 # Cu4+2 O_2 C_R O_2
    2        3.368555              -1               2 # H_ C_R C_R C_R
    3        1.250000              -1               2 # C_R C_R C_R O_2

Improper Coeffs

    1        2.000000        1.000000       -1.000000        0.000000               0 # H_ C_R C_R C_R

Pair Coeffs

    1        0.060000        3.118146 # O_2 O_2
    2        0.005000        3.113691 # Cu4+2 Cu4+2
    3        0.105000        3.430851 # C_R C_R
    4        0.044000        2.571134 # H_ H_

Atoms # full

102 444 2 0.906 7.071489584479916 5.213573203757682 -0.15062567505682758 0 0 0
136 444 2 0.906 6.059056310744121 0.20331088735537625 7.244280939799571 0 0 0
482 444 3 0.335 4.895657082402992 4.841235091776212 1.749516673813427 0 0 0
483 444 3 0.332 5.830550393675741 2.153599579763266 5.092120128954893 0 0 0
486 444 4 -0.012 0.10301924420413291 4.924178772853441 5.121798779118295 0 0 0
487 444 1 -0.391 5.991634998826542 4.337527522285264 1.3186523058370656 0 0 0
488 444 1 -0.39 4.403314690950983 5.929354664726051 1.2870115488666458 0 0 0
489 444 4 -0.012 4.362698533907142 4.325657783095463 2.535887351088923 0 0 0
490 444 1 -0.39 5.271740671731571 1.7187937208730004 6.159622964023196 0 0 0
491 444 1 -0.39 6.921680963631397 1.6654230095095692 4.632438135969075 0 0 0
492 444 4 -0.008999999999999999 5.361525978081529 2.9670737400396403 4.556917071144971 0 0 0
130 444 2 0.905 7.886945909168998 0.14713983718438792 5.554654029135773 0 0 0
44 444 1 -0.405 11.631647194717138 6.504981873128391 4.597753396661392 0 0 0
50 444 1 -0.405 8.005157231415362 6.35137038995567 1.235936535250974 0 0 0
91 444 1 -0.405 14.493317317322662 6.6063057644584 4.495733520159919 0 0 0
121 444 2 0.905 13.127174061010015 7.228925565026944 7.223689401392081 0 0 0
126 444 2 0.905 13.133789837622968 5.465749953538663 5.466011730468116 0 0 0
174 444 4 0.048 9.811416143650275 6.727644640105509 2.910414408369656 0 0 0
352 444 1 -0.391 8.848004618578493 1.4807894630164462 6.733204017367182 0 0 0
356 444 1 -0.39 11.779283465411156 4.493638662657157 6.611087500294123 0 0 0
431 444 1 -0.39 14.632478414411931 4.59831246057044 6.510708891438831 0 0 0
6 444 1 -0.405 17.950914606084712 6.811685803372306 0.8734196281505001 0 0 0
142 444 2 0.905 17.57217488280754 1.0061054336755813 6.926984428254279 0 0 0
160 444 4 0.048 16.200653162922922 6.97784952341279 2.683701732091428 0 0 0
411 444 3 0.332 21.153922628519272 5.483558091253711 1.3460559810918094 0 0 0
415 444 1 -0.39 18.01387323399433 2.9518755089075848 6.592416779626854 0 0 0
417 444 4 -0.012 18.944860246171576 4.667185547305955 7.1643859358840265 0 0 0
418 444 1 -0.39 21.58498678594475 6.61276613490092 0.9224674214607506 0 0 0
419 444 1 -0.39 20.08959401362533 4.933465936868524 0.8931136971937309 0 0 0
420 444 4 -0.008999999999999999 21.71285108539406 4.972582523519969 2.1175356977295836 0 0 0
414 444 4 -0.012 21.617057131991277 6.4547212365471305 5.901532461634303 0 0 0
1431 444 3 0.332 20.401633656036154 0.3905481364805128 6.602018013853921 0 1 0
1438 444 1 -0.39 19.280075879117128 0.4638014925915648 5.9874868714831235 0 1 0
1440 444 4 -0.008999999999999999 21.279555579867306 0.09738457326152392 6.043487040148284 0 1 0
410 444 3 0.334 18.747064391331566 3.629616153963138 7.394733289895345 0 0 0
409 444 3 0.335 22.5823785544365 6.769911418807269 6.272534179583765 0 0 0
412 444 1 -0.39 23.03644509330603 6.226071812627631 7.33962273319902 0 0 0
1009 444 3 0.335 26.100818588627824 5.669433802732504 5.735619443306087 0 0 0
1012 444 1 -0.391 25.92194890202276 6.824445152626917 5.211697154676168 0 0 0
1013 444 1 -0.39 25.735770857090525 5.385025051200172 6.929985369078704 0 0 0
1014 444 4 -0.012 26.580291677367153 4.901834339931844 5.144532704929027 0 0 0
578 444 1 -0.404 34.47769108981493 6.353588791298313 1.2375851213224927 0 0 0
630 444 2 0.907 33.54519878391343 5.215478251027973 -0.1496030785598313 0 0 0
658 444 2 0.906 34.35670757136498 0.1450200690464409 5.550301103030471 0 0 0
664 444 2 0.907 32.52951664472667 0.20188769725498198 7.240677668262291 0 0 0
702 444 4 0.048 36.282536530401444 6.73010059022759 2.913455013984945 0 0 0
880 444 1 -0.391 35.31859743994945 1.4788016505590589 6.728066126958078 0 0 0
1010 444 3 0.335 31.368103526206276 4.842650440907266 1.7489807889839109 0 0 0
1011 444 3 0.332 32.30051730157779 2.1517158128916516 5.0880906147711675 0 0 0
1015 444 1 -0.391 32.4646145040825 4.339297170784861 1.319047210927179 0 0 0
1016 444 1 -0.39 30.875969938584838 5.930751375705938 1.2862276398283086 0 0 0
1017 444 4 -0.012 30.83472597514324 4.327013799774494 2.535021938960803 0 0 0
1018 444 1 -0.39 31.74214617048628 1.7173389814244182 6.15598875462871 0 0 0
1019 444 1 -0.39 33.39145970495222 1.6633614551125124 4.628145690404665 0 0 0
1020 444 4 -0.008999999999999999 31.831440700154058 2.965184780075828 4.552935406337721 0 0 0
534 444 1 -0.404 44.423331284667604 6.808739528034648 0.881355733593126 0 0 0
572 444 1 -0.404 38.10118747098735 6.507458795875135 4.60270699830474 0 0 0
619 444 1 -0.404 40.962985496276836 6.607991478024188 4.501690709452043 0 0 0
649 444 2 0.906 39.59587103095301 7.233204191675595 7.228559107512692 0 0 0
654 444 2 0.906 39.60277223093802 5.468543391735731 5.472397840756469 0 0 0
688 444 4 0.049 42.67196344689022 6.976914758967715 2.6906528418182534 0 0 0
884 444 1 -0.39 38.24758192465352 4.497837431151874 6.617883658020437 0 0 0
959 444 1 -0.39 41.10091978135767 4.601890597501014 6.518440814956298 0 0 0
670 444 2 0.906 44.043948121898005 1.0012437649870405 6.910559320999171 0 0 0
943 444 1 -0.39 44.48166370682142 2.9476912201554426 6.574688870553689 0 0 0
938 444 3 0.334 45.20529696661737 3.630078439959642 7.381719113709374 0 0 0
481 444 3 0.335 52.56600985135324 5.68651044772949 5.720613717572432 -1 0 0
484 444 1 -0.391 52.38325898279149 6.845190730372705 5.206209078115203 -1 0 0
485 444 1 -0.39 52.20557572308115 5.392266455031957 6.914005850334967 -1 0 0
937 444 3 0.335 49.047956771194116 6.777844730817053 6.278757128629993 0 0 0
939 444 3 0.332 47.625749294471454 5.479363044093646 1.355736838853885 0 0 0
940 444 1 -0.39 49.50660954614175 6.226320106632057 7.339914073492408 0 0 0
942 444 4 -0.012 48.08168546508031 6.464260372736545 5.908857651418897 0 0 0
945 444 4 -0.012 45.401380384878614 4.667775930103771 7.150480691518641 0 0 0
946 444 1 -0.39 48.05727011725928 6.6083729741709805 0.932101749652169 0 0 0
947 444 1 -0.39 46.56128731486345 4.9296385246780625 0.9026433389832879 0 0 0
948 444 4 -0.008999999999999999 48.184116393945 4.968463264905297 2.12767042707709 0 0 0
1959 444 3 0.332 46.8783400681127 0.39498109416319993 6.612262938605806 0 1 0
1966 444 1 -0.39 45.761964239521596 0.4625213705471223 5.987697891092106 0 1 0
1968 444 4 -0.008999999999999999 47.76220751822081 0.10356341697137325 6.062263210125325 0 1 0
21 444 1 -0.405 6.5800891561770545 14.450498926753509 4.576969874253264 0 0 0
24 444 1 -0.405 6.421839670171621 7.9371896779858515 1.2074006007386564 0 0 0
32 444 1 -0.405 4.458319615026934 11.64787893894513 6.571072877718715 0 0 0
59 444 1 -0.404 0.35518827442085055 8.85411146523949 7.01685597085206 0 0 0
72 444 1 -0.405 6.508280788288627 11.578582000242267 4.59354177253055 0 0 0
137 444 2 0.906 7.1609099733684785 13.011653827197833 7.273399385774229 0 0 0
143 444 2 0.906 5.436746987001737 13.046207954000401 5.483292650093252 0 0 0
184 444 4 0.048 6.746977568916185 9.745192239628734 2.9080623825995593 0 0 0
202 444 4 0.049 2.504007270219219 10.144606992360721 6.992396671072199 0 0 0
452 444 1 -0.391 4.52718492451768 14.502676894340668 6.551310225685366 0 0 0
11 444 1 -0.405 14.483542142689126 8.192843549411085 6.079090810603972 0 0 0
33 444 1 -0.405 8.063932543789475 11.550575526806991 6.205813025787819 0 0 0
65 444 1 -0.405 11.625303883769323 8.09219519812789 6.180021926363286 0 0 0
83 444 1 -0.405 8.133344112085057 14.418717408307998 6.191669989466956 0 0 0
173 444 3 0.053 9.388376060910618 7.635802697947328 3.3244799279612773 0 0 0
183 444 3 0.053 7.6620074596551735 9.337406124799395 3.3223237772127683 0 0 0
195 444 3 0.053 9.416124812539538 9.391294557302865 4.995526267568279 0 0 0
196 444 4 0.048 9.862308477223952 9.843828527852715 5.873774243653934 0 0 0
258 444 3 0.365 14.918997642569364 7.7196533785421595 4.969110769832153 0 0 0
281 444 3 -0.107 8.246496260867398 9.947904036600013 4.446817278875459 0 0 0
282 444 3 0.365 7.583315554964857 11.100425430261442 5.105010911476421 0 0 0
305 444 3 -0.107 8.217081854343922 8.1725862904665 2.762546509412623 0 0 0
306 444 3 0.365 7.522825373533202 7.4612934638366495 1.6620159546345585 0 0 0
315 444 3 -0.107 9.98953138280394 8.22987043114861 4.4475592305862754 0 0 0
316 444 3 0.365 11.155841549753703 7.586011055736591 5.098997580194696 0 0 0
326 444 3 0.365 7.675814283189223 14.882475737157222 5.086271155663968 0 0 0
16 444 1 -0.404 18.808671167444377 12.325414577544974 4.0342521352234435 0 0 0
81 444 1 -0.404 19.439817727364215 8.487630182958455 0.8955523486992255 0 0 0
85 444 1 -0.405 18.201308409181838 11.55854815928722 6.0549383753322745 0 0 0
131 444 2 0.906 19.8632331925379 13.870308036108279 4.788478779732519 0 0 0
133 444 2 0.905 19.20772140639261 13.002560289029336 7.032490450856776 0 0 0
149 444 3 0.052 18.10377608756441 9.78647241274663 2.9716742544237893 0 0 0
150 444 4 0.048 18.946184778418157 10.287786413438054 2.5072643823350633 0 0 0
159 444 3 0.052 16.56003020185082 7.92184735045626 3.077265725606857 0 0 0
233 444 3 0.053 16.500321234207323 9.648241535963802 4.779848801693444 0 0 0
234 444 4 0.049 16.09519991014498 10.053548502754156 5.700694158734484 0 0 0
251 444 3 -0.106 17.638522584346468 8.572141200430423 2.4479519752897017 0 0 0
252 444 3 0.365 18.364865667085606 7.935144757815055 1.3285136610227477 0 0 0
257 444 3 -0.106 15.9848255798586 8.453266376369832 4.247926788067657 0 0 0
327 444 3 -0.106 17.55930224406347 10.313630922730573 4.147390452145611 0 0 0
328 444 3 0.365 18.194833412067506 11.47933325226638 4.7766373499250445 0 0 0
388 444 1 -0.391 17.589072341950423 14.20221582892789 6.903245119453011 0 0 0
463 444 1 -0.391 21.483176431908916 12.670910482970589 4.9222357919109125 0 0 0
396 444 4 -0.01 16.57298203894848 14.407296725376877 2.2491566925635316 0 0 0
458 444 3 0.334 21.687044510149285 11.922903114430868 5.9414071662802845 0 0 0
464 444 1 -0.39 20.891103701455414 11.882768917790381 6.944560371542951 0 0 0
385 444 3 0.334 17.380493633874604 14.94457206078177 5.8817353325699075 0 0 0
413 444 1 -0.39 23.22430490320806 7.67003636162417 5.625332131147697 0 0 0
647 444 2 0.906 25.03871405454188 8.336196070916115 6.223955689411233 0 0 0
587 444 1 -0.403 26.83098303471541 8.846378284946985 7.009973656860168 0 0 0
730 444 4 0.049 28.97570537934386 10.143319686952795 6.990243310240838 0 0 0
465 444 4 -0.012 22.568422349356112 11.299407344771717 5.953668707486719 0 0 0
549 444 1 -0.404 33.048966492484716 14.45262870049359 4.576200137908369 0 0 0
552 444 1 -0.404 32.89403798857504 7.939047190236717 1.2079054447709203 0 0 0
560 444 1 -0.404 30.92733135801758 11.6506859112099 6.571446942052851 0 0 0
561 444 1 -0.404 34.53278691489017 11.55364819032807 6.206820006274648 0 0 0
600 444 1 -0.404 32.97756457144205 11.580730728346968 4.594177629954881 0 0 0
611 444 1 -0.404 34.601992831321915 14.42173018319499 6.191091223338492 0 0 0
665 444 2 0.907 33.629351198646624 13.015218438728427 7.273390670570547 0 0 0
671 444 2 0.907 31.90553181654297 13.048607547108304 5.4829740101794835 0 0 0
701 444 3 0.053 35.8590864119728 7.638246125793598 3.3271426022467008 0 0 0
711 444 3 0.053 34.13245365893621 9.339613896144613 3.32366454255046 0 0 0
712 444 4 0.048 33.21763858525295 9.747224375886912 2.9087433416878956 0 0 0
723 444 3 0.053 35.88548333674438 9.393933599961926 4.997987958905865 0 0 0
724 444 4 0.048 36.33101806468543 9.84661152177015 5.876486804064621 0 0 0
809 444 3 -0.107 34.716137954314384 9.950319898758309 4.448483332584416 0 0 0
810 444 3 0.365 34.05248732578144 11.102898690738987 5.106110227081492 0 0 0
833 444 3 -0.107 34.68811535216793 8.174840338000475 2.764341534009205 0 0 0
834 444 3 0.365 33.99477690031515 7.463385616233244 1.6633108286721718 0 0 0
843 444 3 -0.107 36.45941097129345 8.232526946944024 4.450556836324213 0 0 0
854 444 3 0.365 34.14458450080384 14.884902197529604 5.085389069043056 0 0 0
980 444 1 -0.391 30.995763750280986 14.505554221724479 6.550156035568138 0 0 0
844 444 3 0.365 37.625355462473834 7.588937413048942 5.102916216352334 0 0 0
539 444 1 -0.404 40.95289083018671 8.195851892403025 6.083684805869223 0 0 0
593 444 1 -0.404 38.09457765392388 8.095959726952064 6.183652880641963 0 0 0
613 444 1 -0.404 44.6709353987819 11.56088277050815 6.059150970217906 0 0 0
677 444 3 0.053 44.576365362383555 9.784782525491165 2.9777329654510156 0 0 0
687 444 3 0.053 43.03148302265086 7.921108288321739 3.083669245494556 0 0 0
761 444 3 0.053 42.97125980573431 9.64915263438884 4.7846007630857255 0 0 0
762 444 4 0.048 42.565555639146886 10.055552340347974 5.704692072122531 0 0 0
779 444 3 -0.106 44.11080740228242 8.570293528794062 2.454665071640018 0 0 0
780 444 3 0.365 44.83756696680979 7.932201312158013 1.3361526700175081 0 0 0
785 444 3 -0.106 42.45556735078468 8.453961781276886 4.253345771139955 0 0 0
786 444 3 0.365 41.38887819952654 7.7215158798709 4.974409523903241 0 0 0
855 444 3 -0.106 44.03116725017051 10.31335041129893 4.152467527628175 0 0 0
856 444 3 0.365 44.66672264893646 11.4794447739346 4.780989621951809 0 0 0
916 444 1 -0.391 44.05955544386269 14.206450467101854 6.901930773393396 0 0 0
924 444 4 -0.01 43.044223815999196 14.411111828140596 2.249289388630256 0 0 0
913 444 3 0.335 43.8534280210615 14.9472527378897 5.878814436392717 0 0 0
119 444 2 0.905 51.50202351687037 8.347860379941755 6.233522926991364 -1 0 0
941 444 1 -0.39 49.686122619507245 7.684088524222856 5.636408401284618 0 0 0
544 444 1 -0.403 45.28247353123257 12.323808527633966 4.038262068105363 0 0 0
609 444 1 -0.403 45.91289209522031 8.484091879400538 0.9034731597765423 0 0 0
659 444 2 0.907 46.33717578282796 13.86904210659962 4.791655971966838 0 0 0
661 444 2 0.906 45.67703676280457 13.005676466488218 7.035944777893261 0 0 0
678 444 4 0.049 45.41945382677187 10.285212720600882 2.5135545900893788 0 0 0
991 444 1 -0.391 47.95574841226259 12.668433009106016 4.930332528625024 0 0 0
986 444 3 0.334 48.15731875090779 11.922068917884408 5.951179648003395 0 0 0
992 444 1 -0.39 47.35944942936987 11.884266436833556 6.952897527599535 0 0 0
993 444 4 -0.012 49.03811828322464 11.297781191686466 5.966064528156618 0 0 0
7 444 1 -0.405 4.9214864329127135 20.268118640813196 0.9995148752253905 0 0 0
13 444 1 -0.404 1.4163770843618422 22.036369565276956 5.851525065216651 0 0 0
79 444 1 -0.405 6.714754387634133 18.061202295821744 1.1145239187873086 0 0 0
80 444 1 -0.405 6.642380021999056 21.704178267790912 0.9962304404761918 0 0 0
92 444 1 -0.404 1.1882857736691113 20.74553284913611 4.032251853332173 0 0 0
124 444 2 0.905 -0.08056402886450786 21.10186436204854 6.825235698669631 0 0 0
163 444 3 0.053 3.5787723654021937 21.69172266822726 2.965048974524582 0 0 0
164 444 4 0.049 3.0874178917266977 20.847966806784168 2.4939528232079717 0 0 0
226 444 4 0.048 6.929786136672294 16.237798409645663 2.8489079864091975 0 0 0
323 444 3 -0.106 4.829686519569614 22.111145998767565 2.4947192825281674 0 0 0
324 444 3 0.365 5.493552563690026 21.334909627791074 1.4256544986173494 0 0 0
333 444 3 -0.106 2.990949378367656 22.289256275472482 4.085847536424941 0 0 0
334 444 3 0.365 1.7796360721262767 21.68542540555847 4.67430769789483 0 0 0
448 444 1 -0.391 1.0065479426261992 18.42588239720464 5.661268920380027 0 0 0
445 444 3 0.334 1.5253744252369412 18.67231084962675 6.8060980790416865 0 0 0
450 444 4 -0.013 2.2374945117428933 17.9686005340857 7.213905532501033 0 0 0
4 444 1 -0.406 8.434397196609943 19.497935482106897 1.0948947762999355 0 0 0
8 444 1 -0.405 11.800238585536277 17.7863449292237 6.194009280577804 0 0 0
10 444 1 -0.405 11.892995479349844 21.38193548638699 6.582403041868279 0 0 0
58 444 1 -0.405 14.737245341719552 21.332944959645776 6.603269328349371 0 0 0
96 444 1 -0.405 11.853177225908839 19.357324586564104 4.596517174237281 0 0 0
113 444 2 0.905 13.257878067919819 18.6786574766214 7.274551087581359 0 0 0
118 444 2 0.906 13.30495597548175 20.425991253055958 5.505892604927885 0 0 0
153 444 3 0.052 9.651507688409687 18.237650188844952 3.2771669342646326 0 0 0
154 444 4 0.047 10.121171900755293 19.11786230495075 2.853212561574419 0 0 0
225 444 3 0.053 7.85271399342749 16.614234234639923 3.275157143684962 0 0 0
239 444 3 0.053 9.575278366079273 16.519359290194984 4.982355775553614 0 0 0
240 444 4 0.048 9.985503522809326 16.070360898333373 5.879698454254263 0 0 0
247 444 3 -0.107 8.469722042080768 17.741999844382743 2.7038494441656877 0 0 0
248 444 3 0.365 7.8464950155414295 18.459917006673827 1.5668568513765322 0 0 0
253 444 3 -0.107 10.203241199670524 17.64724818084367 4.424693565755732 0 0 0
254 444 3 0.365 11.363433092054898 18.28097533395479 5.094607833836661 0 0 0
325 444 3 -0.107 8.393821255550947 15.998569028549538 4.420434437199683 0 0 0
391 444 1 -0.391 14.711905143823488 19.299149530675642 4.59146895262752 0 0 0
392 444 1 -0.391 14.663558349610778 17.714164258369166 6.185977943016494 0 0 0
36 444 1 -0.404 20.871265191706943 15.317788420297566 5.7690376469860984 0 0 0
389 444 1 -0.391 18.175589195905193 14.984056882962248 4.878730660925866 0 0 0
386 444 3 0.334 15.115171084748527 18.18852065662648 5.084964779273463 0 0 0
98 444 2 0.905 17.705170905894253 18.027095376981226 1.26165908806804 0 0 0
103 444 2 0.905 19.65340295285863 16.4897011506419 1.025914368453258 0 0 0
373 444 3 0.334 19.359933118973355 17.722406116895986 3.6444747448504473 0 0 0
376 444 1 -0.39 20.08198155116214 16.919691123098985 2.954196076049789 0 0 0
377 444 1 -0.39 18.323577921473195 18.306995054552218 3.168991481382871 0 0 0
378 444 4 -0.012 19.636418862301543 17.913450723719414 4.672114851516804 0 0 0
387 444 3 0.332 17.18674227685726 15.236346600008304 1.9255783778202753 0 0 0
390 444 4 -0.013 16.494810128573974 15.561211352490211 5.865014497517884 0 0 0
393 444 4 -0.013 15.866794509204956 17.627636768341514 4.548301002099839 0 0 0
394 444 1 -0.39 18.416809488650134 15.014641223374056 1.6429528542224339 0 0 0
395 444 1 -0.39 16.654697743125315 16.399163188400397 1.8457570115334039 0 0 0
318 444 3 0.365 20.88961384302126 15.384045358340941 7.048174036971486 0 0 0
2511 444 3 0.331 20.17508387200601 19.276829486493785 0.3585728543970309 0 0 1
2518 444 1 -0.389 20.704542844382473 18.112763060654167 0.43256962464221316 0 0 1
2519 444 1 -0.39 18.948256063436258 19.500850550838415 0.6504144655374298 0 0 1
2520 444 4 -0.008999999999999999 20.789931721357807 20.10539055470309 0.03602104120911617 0 0 1
63 444 1 -0.404 24.648601881151922 18.727321279248034 5.779034305840365 0 0 0
220 444 4 0.049 22.881531431646554 16.927782271371957 6.019219734143153 0 0 0
374 444 3 0.334 24.531285513681542 22.10235415888714 4.82049667891141 0 0 0
379 444 1 -0.391 25.049335539096752 22.34713118116473 5.965882643119638 0 0 0
380 444 1 -0.39 24.820853848838166 21.05866010973868 4.13697295595008 0 0 0
541 444 1 -0.403 27.885873468500343 22.035405765826727 5.850937854083649 0 0 0
620 444 1 -0.403 27.656866485800116 20.745899192516436 4.030832049402063 0 0 0
652 444 2 0.906 26.389362127439057 21.1000789369225 6.824746658424461 0 0 0
655 444 2 0.907 26.136163988194685 19.672383676560404 4.799102900332738 0 0 0
691 444 3 0.053 30.046980627181647 21.692640014809 2.9633911450620376 0 0 0
692 444 4 0.049 29.555642660998167 20.848942330219888 2.4921573309039164 0 0 0
861 444 3 -0.106 29.45936365761681 22.289765626275546 4.084533661056714 0 0 0
862 444 3 0.365 28.248337785527067 21.685485338736033 4.673175318589902 0 0 0
976 444 1 -0.391 27.476187924288904 18.425080659726934 5.658154379329455 0 0 0
219 444 3 0.052 22.60105822726457 17.215043172291505 7.0265990894326915 0 0 0
314 444 3 0.365 24.310135127849044 19.054468801357306 6.970483683089264 0 0 0
973 444 3 0.334 27.995335206822475 18.670525139003765 6.803034424692179 0 0 0
978 444 4 -0.013 28.707775548510526 17.966582684676748 7.209890264489187 0 0 0
532 444 1 -0.405 34.90303745292407 19.49993468535415 1.093581812056524 0 0 0
535 444 1 -0.404 31.390044419557345 20.26945305363102 0.9975961945268746 0 0 0
607 444 1 -0.404 33.18370147463184 18.062856912698624 1.1127846733988616 0 0 0
608 444 1 -0.404 33.11065986533306 21.70579926832044 0.9947264375744266 0 0 0
681 444 3 0.053 36.12071315496869 18.239123687402486 3.2750160739162824 0 0 0
682 444 4 0.048 36.5905708632868 19.11907472607173 2.8506888760017453 0 0 0
753 444 3 0.053 34.321415751086796 16.61624552487425 3.2738415924057436 0 0 0
754 444 4 0.048 33.39823793985833 16.24001039794298 2.847933876649981 0 0 0
767 444 3 0.053 36.04447500801526 16.52119100019406 4.980550481969277 0 0 0
768 444 4 0.048 36.4548624206309 16.072222365430974 5.877835689926199 0 0 0
775 444 3 -0.107 34.93860024882894 17.743744364593407 2.7021747523989617 0 0 0
776 444 3 0.365 34.31531520653688 18.461677929397432 1.5652321670899068 0 0 0
781 444 3 -0.107 36.67258298933181 17.648796464366338 4.422511730275153 0 0 0
851 444 3 -0.106 31.29774422362736 22.11237454700549 2.492927792432163 0 0 0
852 444 3 0.365 31.961709399922807 21.336427884788325 1.4237343868348025 0 0 0
853 444 3 -0.107 34.862696346669146 16.000653085415316 4.419094161024893 0 0 0
917 444 1 -0.391 44.65023527435461 14.98429758719731 4.877106702734987 0 0 0
536 444 1 -0.404 38.27009720090567 17.787924678683524 6.191361533232266 0 0 0
538 444 1 -0.404 38.362746072229065 21.38341960096511 6.579518309106858 0 0 0
586 444 1 -0.404 41.20699686263933 21.334498729411063 6.599736293258143 0 0 0
624 444 1 -0.404 38.32256136339572 19.358779217037753 4.593772861519569 0 0 0
641 444 2 0.906 39.72803277543931 18.680374854190877 7.271458412813829 0 0 0
646 444 2 0.907 39.774577794717615 20.427562796988436 5.502668048174011 0 0 0
782 444 3 0.365 37.8330493868536 18.282417505603274 5.091994647136941 0 0 0
914 444 3 0.334 41.584800387357575 18.190095832523454 5.081510628138864 0 0 0
915 444 3 0.332 43.65771015962421 15.240526674024348 1.9261255564457356 0 0 0
918 444 4 -0.013 42.96829461427275 15.564599331347273 5.859486048581381 0 0 0
919 444 1 -0.391 41.18126380445366 19.300615650091906 4.588020516995369 0 0 0
920 444 1 -0.391 41.13344837673374 17.71579448498153 6.182660963260119 0 0 0
921 444 4 -0.013 42.3362625485825 17.62919364154204 4.544668838434168 0 0 0
923 444 1 -0.39 43.12518449657828 16.403142128609936 1.8466368728373732 0 0 0
626 444 2 0.906 44.17518353755789 18.03168606140084 1.2632193722735536 0 0 0
905 444 1 -0.39 44.79272178735446 18.311316696662328 3.1709020597384656 0 0 0
922 444 1 -0.39 44.887969725217715 15.019447320729018 1.6439045247382502 0 0 0
564 444 1 -0.403 47.344478610121534 15.317453309769066 5.771432878867958 0 0 0
127 444 2 0.906 52.608540099042614 19.67266255996347 4.800534382323876 -1 0 0
591 444 1 -0.403 51.12022262300409 18.728429458451444 5.780329873505945 0 0 0
631 444 2 0.906 46.124202653968055 16.49526244323695 1.0276433079843266 0 0 0
748 444 4 0.049 49.35372568305498 16.928521289004777 6.02137632564488 0 0 0
901 444 3 0.334 45.82934713679247 17.727242330679204 3.646452256232068 0 0 0
902 444 3 0.334 51.00392809941512 22.10287202154825 4.8190859221034215 0 0 0
904 444 1 -0.39 46.551837827488654 16.924900616675437 2.95623744088635 0 0 0
906 444 4 -0.012 46.105391139828996 17.918036789686727 4.674259328321464 0 0 0
907 444 1 -0.391 51.52108663077371 22.348326178050748 5.964721739763172 0 0 0
908 444 1 -0.39 51.29351576182055 21.05847136651351 4.136657065113245 0 0 0
846 444 3 0.365 47.3609139264173 15.385766742183876 7.050476400703813 0 0 0
747 444 3 0.052 49.072393391384054 17.21683171358312 7.028223028548797 0 0 0
842 444 3 0.365 50.78130736353812 19.056406271227473 6.971419902342093 0 0 0
3039 444 3 0.331 46.6446582957069 19.2828574929971 0.36125186013500044 0 0 1
3046 444 1 -0.389 47.174598848298146 18.119004123177472 0.43508841371785545 0 0 1
3047 444 1 -0.39 45.4176248063109 19.50620600264744 0.6528040354780841 0 0 1
3048 444 4 -0.008999999999999999 47.25921819760234 20.111790563618328 0.0391148258368019 0 0 1
15 444 1 -0.405 6.753117831325853 25.279510973665005 4.547256088030537 0 0 0
87 444 1 -0.405 5.1067498190033 25.33624581019709 6.067279235390035 0 0 0
151 444 3 0.052 5.471560338293444 23.193386953411775 3.1238773735765633 0 0 0
152 444 4 0.047 6.4474910258956575 23.512061142797833 2.7757291867961835 0 0 0
167 444 3 0.053 3.641338367355563 23.364814354520902 4.710240031941908 0 0 0
168 444 4 0.049 3.19538691210214 23.81830352149915 5.588312998094567 0 0 0
263 444 3 -0.106 4.885330755452039 23.824400526224252 4.239217198983723 0 0 0
264 444 3 0.365 5.611980627864157 24.88338073668432 4.9783926481994065 0 0 0
1192 444 2 0.907 6.058382608397837 26.673613761850305 7.244930197606027 0 0 0
1539 444 3 0.332 5.830274447436813 28.62395031497883 5.092694921792837 0 0 0
1546 444 1 -0.39 5.271302570022509 28.18927370669424 6.160156658448928 0 0 0
1547 444 1 -0.39 6.9217203388567965 28.13611384350167 4.633420519085227 0 0 0
1548 444 4 -0.008999999999999999 5.36136362959119 29.43744881746174 4.55741825753888 0 0 0
1186 444 2 0.906 7.8867592190037366 26.617665165272793 5.555827987054589 0 0 0
89 444 1 -0.405 8.664870514730303 25.10143906472227 6.6388385022043295 0 0 0
238 444 4 0.048 10.270578951164456 23.234519385929985 6.908722686555607 0 0 0
1408 444 1 -0.391 8.847360975121571 27.95151903685948 6.734696369273451 0 0 0
200 444 4 0.049 15.976368664144568 23.40641805282615 7.330648050681843 0 0 0
375 444 3 0.332 20.389594373243927 26.860440957501915 6.588876136059785 0 0 0
382 444 1 -0.39 19.263540822240792 26.937875251632942 5.9831438787609565 0 0 0
384 444 4 -0.008999999999999999 21.262537174181194 26.566756186048078 6.022866994811834 0 0 0
1198 444 2 0.906 17.564142091182017 27.48127263704503 6.9372287576578415 0 0 0
1471 444 1 -0.39 18.007208657910205 29.42706391579418 6.603709453896122 0 0 0
381 444 4 -0.012 23.819907063617233 22.806973408174468 4.413118144987801 0 0 0
696 444 4 0.049 29.66376742578733 23.81863809152201 5.587217496204557 0 0 0
695 444 3 0.053 30.109655527597482 23.36535672292968 4.708992290567531 0 0 0
543 444 1 -0.404 33.221250321617724 25.280334278705325 4.545519664493634 0 0 0
615 444 1 -0.404 31.575409850526352 25.33675228680931 6.066081519998825 0 0 0
617 444 1 -0.404 35.13370852784937 25.10240341688389 6.636432403813202 0 0 0
679 444 3 0.053 31.93947950382776 23.19467132465545 3.122090775497882 0 0 0
680 444 4 0.048 32.91519855850224 23.513732896592707 2.773663524307431 0 0 0
766 444 4 0.048 36.740260269451234 23.236098404222226 6.906246413610435 0 0 0
791 444 3 -0.106 31.353459268166688 23.825269832492967 4.237756844297873 0 0 0
792 444 3 0.365 32.08017530236169 24.88424615509174 4.976854947590043 0 0 0
1714 444 2 0.906 34.354999813420044 26.618685633302647 5.553753695366424 0 0 0
1720 444 2 0.907 32.527173181251 26.674318300900982 7.243487853848215 0 0 0
1936 444 1 -0.391 35.315880994302034 27.952514907615658 6.732355116057424 0 0 0
2067 444 3 0.332 32.29817344505585 28.624742248319524 5.091439794582791 0 0 0
2074 444 1 -0.39 31.739611061752463 28.18986176605122 6.159029231655975 0 0 0
2075 444 1 -0.39 33.3894826102035 28.1369786863357 4.631744677810655 0 0 0
2076 444 4 -0.008999999999999999 31.828985445919237 29.438214395671746 4.556384499498747 0 0 0
728 444 4 0.049 42.44658433548339 23.40781399165199 7.3253783821612135 0 0 0
1726 444 2 0.906 44.036834714875646 27.480817403096147 6.926680273418044 0 0 0
1999 444 1 -0.39 44.47725835062905 29.42702907941461 6.592572427064872 0 0 0
909 444 4 -0.012 50.29278254966292 22.807206187947667 4.410802927802774 0 0 0
903 444 3 0.332 46.8660350281522 26.866496290696176 6.597792317806298 0 0 0
910 444 1 -0.39 45.743676865825286 26.93979356700725 5.984707120123821 0 0 0
912 444 4 -0.008999999999999999 47.74336107838332 26.574002799994513 6.037980441458906 0 0 0
1080 444 1 -0.404 6.421576173527159 34.40850517350705 1.2070756630395718 0 0 0
1115 444 1 -0.403 0.3602210317325516 35.31914298767513 7.015516774977134 0 0 0
1158 444 2 0.907 7.070446128398866 31.684674814318434 -0.15113792380396945 0 0 0
1240 444 4 0.048 6.747239576712511 36.21627838067511 2.9077368844152494 0 0 0
1258 444 4 0.049 2.5065444913744552 36.61329720922701 6.993216752403649 0 0 0
1538 444 3 0.335 4.894932409815137 31.312748603776782 1.7495240949626467 0 0 0
1542 444 4 -0.012 0.10337705386958937 31.3792055149905 5.141267394665169 0 0 0