

9060 atoms
7 atom types
10365 bonds
9 bond types
12054 angles
9 angle types
11820 dihedrals
3 dihedral types
6678 impropers
1 improper types

-0.44080249076679756 53.20390249076779 xlo xhi
-0.4922842094475437 53.25538420945518 ylo yhi
-0.5199157283150211 53.28301572831185 zlo zhi
-0.047543335313894985 0.011472638346560647 0.055986522717079004 xy xz yz

Masses

   1   15.599  # O DC
   2   63.146  # Cu DC
   3   11.611  # C DC
   4    1.008  # H_
   5    0.400  # O DP
   6    0.400  # Cu DP
   7    0.400  # C DP

Pair Coeffs

    1        0.060000        3.118146 1.2880 # O_2 O_2 
    2        0.005000        3.113691 2.1596 # Cu4+2 Cu4+2 
    3        0.105000        3.430851 1.4021 # C_R C_R
    4        0.044000        2.571134 0.0000 # H_ H_
    5         0.00000         0.00000 1.2880 
    6         0.00000         0.00000 2.1596 
    7         0.00000         0.00000 1.4021

Bond Coeffs

    1      714.557442        1.269010  # O_2 C_R
    2      221.999373        2.029549  # O_2 Cu4+2
    3       70.296579        3.032715  # Cu4+2 Cu4+2
    4      357.440381        1.081418  # C_R H_
    5      462.655054        1.379256  # C_R C_R
    6      391.669513        1.458000  # C_R C_R
   7   500.000000     0.000000  # O DC-DP
   8   500.000000     0.000000  # Cu DC-DP
   9   500.000000     0.000000  # C DC-DP

Angle Coeffs

    1       77.210179              -1               3 # C_R O_2 Cu4+2
    2      111.434476               1               4 # O_2 Cu4+2 O_2
    3       52.958227               1               4 # O_2 Cu4+2 Cu4+2
    4       57.289016              -1               3 # H_ C_R C_R
    5      111.297508              -1               3 # C_R C_R C_R
    6      102.183280              -1               3 # C_R C_R C_R
    7      206.778426              -1               3 # O_2 C_R O_2
    8      137.714246              -1               3 # O_2 C_R C_R
    9       79.929261              -1               3 # O_2 C_R H_

Dihedral Coeffs

    1        6.737110              -1               2 # Cu4+2 O_2 C_R O_2
    2        3.368555              -1               2 # H_ C_R C_R C_R
    3        1.250000              -1               2 # C_R C_R C_R O_2

Improper Coeffs

    1        2.000000        1.000000       -1.000000        0.000000               0 # H_ C_R C_R C_R

Atoms # full

49 444 1 1.571456606770507 6.005751689396769 4.442292840982408 0.9658602459582238 0 0 0
77 444 1 1.571456606770507 4.591241757785306 1.0294482096994662 6.091703982889049 0 0 0
89 444 1 1.571456606770507 0.8612216677364409 5.928545649258695 4.376955407004809 0 0 0
101 444 1 1.571456606770507 4.4565071511142955 6.050224131681461 0.952068160825165 0 0 0
117 444 1 1.571456606770507 0.9422944714032834 4.418900296172062 6.027299998370647 0 0 0
133 444 1 1.571456606770507 6.014782520543602 0.9256300609883108 4.4448178472169175 0 0 0
5548 444 7 -2.054839850138789 8.35952717324648 4.2699897664174715 9.821904729794305 0 0 0
5546 444 7 -2.054839850138789 9.54472729573753 2.894262516002206 7.7241752939418555 0 0 0
331 444 3 2.125839850138789 3.1432361086334657 4.778081983969807 3.207402378978536 0 0 0
332 444 4 0.047 2.7211220118181396 5.754932350061996 2.874029333228435 0 0 0
387 444 3 2.125839850138789 4.818003167648589 3.0219921765108233 3.1079566576228204 0 0 0
388 444 4 0.047 5.694590455141567 2.592000669507864 2.6610248287422915 0 0 0
411 444 3 2.125839850138789 3.2009553289464487 3.1448175140567787 4.908234825803267 0 0 0
412 444 4 0.047 2.8301706100637465 2.8084208418303938 5.887528687660099 0 0 0
520 444 3 1.934839850138789 4.191100881917365 4.176223211666572 2.508237750013842 0 0 0
521 444 3 2.406839850138789 4.838113106660816 4.8677320457877435 1.35786836961595 0 0 0
576 444 3 1.934839850138789 4.318690625068146 2.5618437253210535 4.328761011034165 0 0 0
577 444 3 2.406839850138789 5.050687423008324 1.4650812126350266 5.005965870915608 0 0 0
600 444 3 1.934839850138789 2.5766391562896147 4.2266388199108995 4.33998303981974 0 0 0
601 444 3 2.406839850138789 1.381849909630678 4.89186231879254 4.92242067598114 0 0 0
75 444 1 1.571456606770507 8.06526787896271 0.9649054208037333 6.413945280126093 0 0 0
88 444 1 1.571456606770507 11.577932023367095 6.346117872048052 4.580435673118008 0 0 0
100 444 1 1.571456606770507 7.97202402640379 6.270327130559849 1.2275792631642053 0 0 0
123 444 1 1.571456606770507 11.815880650871568 4.1998673279466425 6.5206072408884035 0 0 0
346 444 4 0.047 9.642061233336026 6.519813304438603 3.0215892895236878 0 0 0
400 444 4 0.047 9.952898443350415 2.465781157765706 6.7934905810177755 0 0 0
63 444 1 1.571456606770507 6.550589791502976 4.423164337911705 11.41182265243656 0 0 0
94 444 1 1.571456606770507 1.1782875787870979 6.418651157401195 7.9877244325445504 0 0 0
106 444 1 1.571456606770507 4.606960019293446 6.391077537747278 11.447810040486516 0 0 0
131 444 1 1.571456606770507 6.556488614565824 0.8634396464236672 8.077169843948887 0 0 0
5550 444 7 -2.054839850138789 8.309636911065102 2.423329975059919 8.16545031156285 0 0 0
350 444 4 0.047 2.7199227696834036 6.859895372521337 9.830747018109458 0 0 0
384 444 4 0.047 6.757419497889112 2.7806788775901676 9.587236197676125 0 0 0
5549 444 7 -2.054839850138789 7.635399205414139 4.956954249296072 10.88530924446659 0 0 0
83 444 1 1.571456606770507 11.776086210867314 5.7381186770740635 8.126825678335031 0 0 0
111 444 1 1.571456606770507 8.133429336998903 6.117429007657195 11.347191955876491 0 0 0
359 444 3 2.125839850138789 9.58931936537312 4.684292935325592 9.29887832999576 0 0 0
360 444 4 0.047 10.052516363441898 5.597304349773719 9.802942384722828 0 0 0
383 444 3 2.125839850138789 7.741530303616976 3.0970231480682813 9.28143396191295 0 0 0
399 444 3 2.125839850138789 9.541367986874295 2.8927178309832695 7.70495741145763 0 0 0
548 444 3 1.934839850138789 8.365559329285725 4.260104847593714 9.811471161450795 0 0 0
549 444 3 2.406839850138789 7.618108295580786 4.9807459597150014 10.917537255125168 0 0 0
572 444 3 1.934839850138789 8.321344184123818 2.43053086572028 8.185303394233632 0 0 0
573 444 3 2.406839850138789 7.619460776844945 1.3388038217683802 7.571099592661236 0 0 0
588 444 3 1.934839850138789 10.167598008646234 4.034589662095386 8.207037864347882 0 0 0
589 444 3 2.406839850138789 11.302800359730767 4.685613391194627 7.593127133063297 0 0 0
4915 444 5 -1.969456606770507 6.012757310404669 4.4411087423285185 0.9679972253911729 0 0 0
4916 444 5 -1.969456606770507 4.58424034432424 1.0336727108438981 6.097536262194595 0 0 0
4917 444 5 -1.969456606770507 0.86119516412078 5.938232103099697 4.3706974005984955 0 0 0
4918 444 5 -1.969456606770507 4.457653979817073 6.0580911079302355 0.9528922824061122 0 0 0
4919 444 5 -1.969456606770507 0.9442634141502807 4.418961734829529 6.033881358998637 0 0 0
4920 444 5 -1.969456606770507 6.022311195717091 0.9235467562892381 4.44421863887347 0 0 0
4923 444 7 -2.054839850138789 3.1500588848179727 4.762180762618858 3.2108439486732125 0 0 0
4924 444 7 -2.054839850138789 4.805544106415978 3.017164586079857 3.107661485557443 0 0 0
4925 444 7 -2.054839850138789 3.2037398931166914 3.149000870590186 4.89342022812773 0 0 0
4926 444 7 -2.054839850138789 4.204790921582143 4.1870835474243 2.503593225453351 0 0 0
4927 444 7 -2.054839850138789 4.806212546421833 4.8426197875656145 1.3884431864716897 0 0 0
4928 444 7 -2.054839850138789 4.3233939601526545 2.5515550301158303 4.341331065255755 0 0 0
4929 444 7 -2.054839850138789 5.033824732864986 1.4946856333735834 4.98028299232765 0 0 0
4930 444 7 -2.054839850138789 2.5643102492306187 4.24227144562117 4.35406020634807 0 0 0
4931 444 7 -2.054839850138789 1.406879572417408 4.867364077476748 4.8938107263639194 0 0 0
4933 444 5 -1.969456606770507 8.070982807451028 0.9629147684400559 6.409019948754474 0 0 0
4934 444 5 -1.969456606770507 11.577787024713908 6.344653056933149 4.579859928971222 0 0 0
4935 444 5 -1.969456606770507 7.975625942887637 6.264114416588169 1.2308116785329601 0 0 0
4936 444 5 -1.969456606770507 11.81723908066797 4.196853736753778 6.515370883611339 0 0 0
5552 444 7 -2.054839850138789 10.180123884648461 4.049250549912577 8.190185501040562 0 0 0
5533 444 5 -1.969456606770507 6.542953318805681 4.419028603896987 11.409229146078593 0 0 0
5534 444 5 -1.969456606770507 1.1788461371450398 6.414730032736493 7.98719825966335 0 0 0
5535 444 5 -1.969456606770507 4.607474453737196 6.382365965998561 11.450128797010995 0 0 0
5536 444 5 -1.969456606770507 6.55139520529448 0.8625438537118257 8.076989918088035 0 0 0
5553 444 7 -2.054839850138789 11.278167685642245 4.662832925308276 7.6181761521286715 0 0 0
5551 444 7 -2.054839850138789 7.643073465886128 1.368766540349235 7.6014518768097625 0 0 0
5541 444 5 -1.969456606770507 11.776821223802466 5.744162672134907 8.130724160381813 0 0 0
5542 444 5 -1.969456606770507 8.139876137605249 6.123121227610109 11.350305786225807 0 0 0
5544 444 7 -2.054839850138789 9.583294450193847 4.665851253627611 9.301387470847597 0 0 0
5545 444 7 -2.054839850138789 7.75516936217912 3.096612500631715 9.277805471272206 0 0 0
206 444 2 3.449205301735216 -0.44241687513023625 7.0920703587318386 5.344240455098001 0 0 0
203 444 2 3.449205301735216 -0.35614130603480737 5.404498921278993 7.16465990667271 0 0 0
4921 444 6 -2.550205301735216 -0.35542654875004975 5.414060453514758 7.161932019078056 0 0 0
4922 444 6 -2.550205301735216 -0.4416863678121105 7.086560336610168 5.3524013393864 0 0 0
8460 444 6 -2.550205301735216 5.437316544899804 7.163867157700301 -0.37009742998921913 0 0 0
193 444 2 3.449205301735216 5.43009815753526 7.170443251222306 -0.37350890822228194 0 0 0
8459 444 6 -2.550205301735216 7.181628505574923 5.322996943793989 -0.36150138704687207 0 0 0
197 444 2 3.449205301735216 7.187465897206364 5.313265240706984 -0.36410916380789693 0 0 0
200 444 2 3.449205301735216 7.260385138358765 7.138144237352291 12.839103159126982 0 0 0
5539 444 6 -2.550205301735216 7.253165482351291 7.13335851488437 12.839041587489767 0 0 0
5439 444 6 -2.550205301735216 7.157393513919691 -0.4566543525265809 5.362281613527002 0 0 0
213 444 2 3.449205301735216 7.16044056689069 -0.45520427108808187 5.359248101754326 0 0 0
5538 444 6 -2.550205301735216 5.50698229130389 5.3187465109065455 12.903976491493738 0 0 0
202 444 2 3.449205301735216 5.498229083836003 5.313951676053902 12.902674129547785 0 0 0
14 444 1 1.571456606770507 4.644673015837828 6.44415161308229 14.381491941795888 0 0 0
155 444 1 1.571456606770507 6.63146924415285 4.358086105606297 14.290727681147926 0 0 0
11 444 1 1.571456606770507 8.240792083975274 5.908955705880273 14.163930618361428 0 0 0
447 444 3 2.406839850138789 7.754853843607651 4.821962126518804 14.685988496536746 0 0 0
29 444 1 1.571456606770507 1.147926199128625 4.4469930472329695 19.935503702933467 0 0 0
41 444 1 1.571456606770507 6.374108785140745 0.9622130227395432 21.34734486412084 0 0 0
47 444 1 1.571456606770507 6.649234702491123 0.9799726475886713 17.833263026845174 0 0 0
165 444 1 1.571456606770507 4.727421198209917 0.9305743252024683 19.8850667290523 0 0 0
178 444 1 1.571456606770507 1.0474951606542982 6.46551211827182 17.882331523307677 0 0 0
181 444 1 1.571456606770507 1.1583330133674614 5.973517777057994 21.567252434543086 0 0 0
6804 444 5 -1.969456606770507 6.10854053634518 4.419666478295487 25.115977589763137 0 0 0
260 444 4 0.047 6.932703796759481 2.674327977859753 16.07415015484559 0 0 0
235 444 2 3.449205301735216 -0.2625751085305121 7.063544043654619 20.622244551244542 0 0 0
315 444 3 2.125839850138789 3.4698003928853014 3.1747085911059196 20.985223077720374 0 0 0
316 444 4 0.047 3.213549304486722 2.8900225298678923 19.93740938616296 0 0 0
481 444 3 1.935839850138789 2.7935251908283227 4.232163011264875 21.618510581936704 0 0 0
482 444 3 2.406839850138789 1.6534834912459682 4.928127103889534 21.022178060468583 0 0 0
504 444 3 1.934839850138789 4.579955245876688 2.579582274173128 21.590559279725657 0 0 0
505 444 3 2.406839850138789 5.285826215800652 1.4422602408747598 20.923384531553612 0 0 0
6817 444 5 -1.969456606770507 8.271546487897618 6.2807089459366 24.913368424747752 0 0 0
6808 444 7 -2.054839850138789 4.980117409479747 4.866347599022227 24.57515520452268 0 0 0
19 444 1 1.571456606770507 11.670617120791272 4.390863732243355 19.24968745429453 0 0 0
163 444 1 1.571456606770507 8.27846588697204 0.9746481127291342 19.310279281573383 0 0 0
188 444 1 1.571456606770507 11.614988759661482 6.320288860368007 21.261749553401433 0 0 0
191 444 1 1.571456606770507 11.66416221198405 5.892829985086745 17.578709844960066 0 0 0
259 444 3 2.125839850138789 7.847056931445691 3.0637812062461256 16.447815408411635 0 0 0
275 444 3 2.125839850138789 9.67246306347285 4.607278155452759 16.291036957042834 0 0 0
276 444 4 0.047 10.006275880987843 5.536841723913229 15.769724128915081 0 0 0
327 444 3 2.125839850138789 9.63959375775222 2.967775459361427 18.004406415866647 0 0 0
328 444 4 0.047 10.086493637483759 2.5717362304646345 18.93821969024651 0 0 0
446 444 3 1.934839850138789 8.454356970517122 4.108364490247406 15.762341544305233 0 0 0
462 444 3 1.934839850138789 10.238058194161242 4.048611631549842 17.42046904978656 0 0 0
463 444 3 2.406839850138789 11.232712405117404 4.820900589798281 18.150654715104903 0 0 0
516 444 3 1.934839850138789 8.475136873705397 2.466562794834043 17.537016308568628 0 0 0
517 444 3 2.406839850138789 7.788620455187509 1.3943760847920443 18.23897192568688 0 0 0
1 444 1 1.571456606770507 4.653581029328077 6.042349683232687 24.934276494306392 0 0 0
149 444 1 1.571456606770507 6.104229587017996 4.4206488033771025 25.11919638050746 0 0 0
241 444 3 2.125839850138789 5.13321938875665 3.1300213260636487 22.794640236862953 0 0 0
242 444 4 0.047 5.933574745655024 2.680428357457993 23.284733964299754 0 0 0
293 444 3 2.125839850138789 3.285493507646509 4.740516863354642 22.81673158681191 0 0 0
294 444 4 0.047 2.825122892852063 5.5447422908503405 23.367436038126375 0 0 0
427 444 3 1.935839850138789 4.487500411305464 4.205849958617556 23.41038231443448 0 0 0
428 444 3 2.406839850138789 5.014526333997863 4.887736149833458 24.604625699291002 0 0 0
6803 444 5 -1.969456606770507 4.652850742772257 6.045934066432603 24.936118025965513 0 0 0
6806 444 7 -2.054839850138789 3.2855522247842934 4.727792144062884 22.821816043374156 0 0 0
8 444 1 1.571456606770507 8.267337042769315 6.289716639680462 24.910879458875403 0 0 0
284 444 4 0.047 9.967661186212469 6.6125912604226755 23.154874375573144 0 0 0
5532 444 5 -1.969456606770507 4.643679605841983 6.441078124170764 14.383468308978536 0 0 0
5537 444 5 -1.969456606770507 6.627051048602476 4.35844266870222 14.289640140436289 0 0 0
5540 444 5 -1.969456606770507 8.24268048496933 5.911803356392318 14.164794299875206 0 0 0
5547 444 7 -2.054839850138789 7.781086183432686 4.796529005929444 14.717185056396941 0 0 0
6068 444 5 -1.969456606770507 1.1524460827184229 4.443592017982582 19.931727661527887 0 0 0
6069 444 5 -1.969456606770507 6.3782052653914265 0.9609235339022546 21.34894729537144 0 0 0
6070 444 5 -1.969456606770507 6.640486909580583 0.9803278204406183 17.82998356853323 0 0 0
6071 444 5 -1.969456606770507 4.7255596467629015 0.9292875671729365 19.882364184782684 0 0 0
6072 444 5 -1.969456606770507 1.0480185626839338 6.46113020921518 17.88065886481731 0 0 0
6073 444 5 -1.969456606770507 1.1599020563506963 5.978876722190832 21.566655378642377 0 0 0
6807 444 7 -2.054839850138789 4.50714393525396 4.208267039904824 23.413840261977686 0 0 0
6075 444 7 -2.054839850138789 3.472722723688271 3.1820327643318524 20.99455996728428 0 0 0
6076 444 7 -2.054839850138789 2.7888454361568993 4.241697045845546 21.61098837010512 0 0 0
6077 444 7 -2.054839850138789 1.681673481386061 4.903740929700529 21.046747781362615 0 0 0
6078 444 7 -2.054839850138789 4.580940475127336 2.5729512203756766 21.581254585594564 0 0 0
6079 444 7 -2.054839850138789 5.263363006368513 1.4779767824114087 20.950437003447465 0 0 0
6082 444 5 -1.969456606770507 11.66846583283447 4.388593398725201 19.256173513161446 0 0 0
6086 444 5 -1.969456606770507 8.277375416586864 0.972999197972627 19.314620318366853 0 0 0
6087 444 5 -1.969456606770507 11.617967922151099 6.315374759318419 21.26603481612491 0 0 0
6088 444 5 -1.969456606770507 11.662911372423123 5.898518990506988 17.57475528820573 0 0 0
6091 444 7 -2.054839850138789 7.858936236622056 3.061484176056325 16.449191659114348 0 0 0
6092 444 7 -2.054839850138789 9.672281321754 4.589201574698956 16.28608948319169 0 0 0
6093 444 7 -2.054839850138789 9.644534138340132 2.9663795439725327 17.982686452578907 0 0 0
6094 444 7 -2.054839850138789 8.44015405887953 4.11681481499576 15.759235697983454 0 0 0
6095 444 7 -2.054839850138789 10.245572696500773 4.061756631693353 17.432545029162984 0 0 0
6096 444 7 -2.054839850138789 11.205083112648401 4.796126436603475 18.128522072490384 0 0 0
6097 444 7 -2.054839850138789 8.468131101494635 2.46103647722381 17.553739762585096 0 0 0
6098 444 7 -2.054839850138789 7.810318254022625 1.4267281127220988 18.21044912033295 0 0 0
6805 444 7 -2.054839850138789 5.127680056080403 3.1267305966601433 22.790357124783426 0 0 0
288 444 4 0.047 3.083358017684477 6.6427471499911634 16.190716639900213 0 0 0
6080 444 6 -2.550205301735216 -0.2610357024443545 7.05823927117622 20.615531443290575 0 0 0
211 444 2 3.449205301735216 -0.39785589911122143 5.306544655820912 18.863829789387594 0 0 0
6074 444 6 -2.550205301735216 -0.39604731016275585 5.312006459448979 18.871613061690827 0 0 0
218 444 2 3.449205301735216 7.508073166516812 -0.459579935092634 20.452206925613876 0 0 0
6081 444 6 -2.550205301735216 7.502045261150083 -0.45972891643358405 20.44450229949003 0 0 0
2518 444 1 1.570456606770507 6.222938192279707 4.557959496653953 27.954442150303578 0 0 0
2570 444 1 1.570456606770507 4.694807153907646 6.163737272026378 27.777518424989292 0 0 0
2794 444 3 2.124839850138789 3.5476534096847714 5.212240673313729 30.20397837334662 0 0 0
2795 444 4 0.046 3.1562022737035904 6.146602968906065 29.762923224513887 0 0 0
2842 444 3 2.124839850138789 5.047708220254719 3.2612114148655693 29.99263485408408 0 0 0
2843 444 4 0.046 5.891747858536772 2.7831258815241138 29.581723295781764 0 0 0
2962 444 3 1.935839850138789 4.533042503402413 4.506755346251172 29.54289216737133 0 0 0
2963 444 3 2.406839850138789 5.1555167688816255 5.090678730576594 28.311545340145763 0 0 0
2569 444 1 1.570456606770507 8.335980433596488 6.4210971375351615 27.761348993236645 0 0 0
2805 444 4 0.046 10.089677352617976 6.77062434061252 29.514175892465815 0 0 0
2546 444 1 1.570456606770507 4.7287859773283945 1.1343590174006442 32.97341850254726 0 0 0
2558 444 1 1.570456606770507 1.425742107203167 6.4090620545038846 31.509276357610123 0 0 0
2563 444 1 1.570456606770507 1.0922280287395607 6.573600254537526 35.016217567868075 0 0 0
2586 444 1 1.570456606770507 1.3039086613479498 4.659513179204244 32.953398278796875 0 0 0
2600 444 1 1.570456606770507 6.668974788742846 1.0863087869077903 34.92920690744975 0 0 0
2602 444 1 1.570456606770507 6.283419991062538 1.0506875765251096 31.356528733906053 0 0 0
7924 444 5 -1.969456606770507 8.181145703087907 6.1389585727681215 38.52256860702514 0 0 0
7231 444 7 -2.054839850138789 7.678352588621734 4.98580814592774 37.996075035646825 0 0 0
7230 444 7 -2.054839850138789 11.353493694846044 4.878308579194929 34.61353491078614 0 0 0
2839 444 4 0.046 6.957755424646194 2.7256218882864776 36.730153367961826 0 0 0
2860 444 3 2.124839850138789 3.5651682816484542 3.420763919383095 31.852562773528362 0 0 0
2861 444 4 0.046 3.1404695775181035 3.0478291352977807 32.804646926195865 0 0 0
3014 444 3 1.935839850138789 4.594471040848094 2.7579378660646663 31.219706287634605 0 0 0
3015 444 3 2.406839850138789 5.227959191572186 1.5630507902088804 31.871416358600218 0 0 0
3035 444 3 1.935839850138789 2.9898152273628207 4.620044485699651 31.288131996189804 0 0 0
3036 444 3 2.406839850138789 1.8439922032290337 5.2428249048216795 31.971424094109057 0 0 0
2544 444 1 1.570456606770507 8.312150046984994 1.1043354302966513 33.36362872245667 0 0 0
2552 444 1 1.570456606770507 11.778542102570523 6.031239565296397 35.00830264881765 0 0 0
2557 444 1 1.570456606770507 11.766999001386983 6.401009795730008 31.400188916717223 0 0 0
2592 444 1 1.570456606770507 11.802134976474068 4.408552286521485 33.49250352611838 0 0 0
2816 444 3 2.124839850138789 9.637102208514461 4.739025707834136 36.48065514160511 0 0 0
2817 444 4 0.046 10.065517034187748 5.567941365854925 36.98775721656054 0 0 0
2838 444 3 2.124839850138789 7.8367852201253525 3.130162775154796 36.401553921629855 0 0 0
2848 444 3 2.124839850138789 9.686288059476766 3.065391971976086 34.74687434128616 0 0 0
2849 444 4 0.046 10.102340492160907 2.5261909393547057 33.933487270859764 0 0 0
2987 444 3 1.935839850138789 8.388499272239457 4.254660043036475 36.9602300736019 0 0 0
3010 444 3 1.935839850138789 8.489991313312835 2.5527959229613777 35.29296411675824 0 0 0
3011 444 3 2.406839850138789 7.796846963225574 1.5100233437758601 34.472102751232605 0 0 0
3023 444 3 1.935839850138789 10.295462538889302 4.195069299419692 35.32694629942596 0 0 0
3024 444 3 2.406839850138789 11.383330474224904 4.900623653263906 34.59109305436408 0 0 0
2988 444 3 2.406839850138789 7.6594777885666065 5.006929922263196 38.02894125180892 0 0 0
2575 444 1 1.570456606770507 4.453302642606093 6.548321327107094 38.896108443793416 0 0 0
2532 444 1 1.570456606770507 6.56663867923849 4.528180702006645 38.46852174413354 0 0 0
7913 444 5 -1.969456606770507 4.449024657999355 6.5424864382973995 38.89861953260234 0 0 0
2686 444 2 3.448205301735216 5.600218247040684 -0.30555321198126245 33.928109219025394 0 0 0
2580 444 1 1.570456606770507 8.178699524951396 6.1337367326395205 38.52102710038082 0 0 0
6809 444 5 -1.969456606770507 6.22516370836048 4.554788607846423 27.953319169820098 0 0 0
6810 444 5 -1.969456606770507 4.695065461511134 6.169534519398231 27.779525062312477 0 0 0
6811 444 7 -2.054839850138789 3.5558608340441036 5.205228838486669 30.20921538977233 0 0 0
6812 444 7 -2.054839850138789 5.036144157397906 3.2586051926257555 29.990993354495163 0 0 0
6813 444 7 -2.054839850138789 4.542868853882384 4.511435197423697 29.534884661178687 0 0 0
6814 444 7 -2.054839850138789 5.129711092814522 5.067436170361387 28.34424999957452 0 0 0
6818 444 5 -1.969456606770507 8.33516205171916 6.412820923075089 27.762168331371665 0 0 0
7201 444 5 -1.969456606770507 4.723642308921766 1.134060954133764 32.980436002519475 0 0 0
7202 444 5 -1.969456606770507 1.4257235460041087 6.416399013611127 31.503024521240665 0 0 0
7203 444 5 -1.969456606770507 1.092471018771801 6.567510111290371 35.01976157011603 0 0 0
7204 444 5 -1.969456606770507 1.304737654312965 4.657519666345535 32.95507236149419 0 0 0
7205 444 5 -1.969456606770507 6.665221435550598 1.0856683828654174 34.93240060680197 0 0 0
7206 444 5 -1.969456606770507 6.287843590880288 1.05174466479621 31.35457340823245 0 0 0
7916 444 5 -1.969456606770507 6.560931123341885 4.524922454183747 38.472777582545206 0 0 0
7209 444 7 -2.054839850138789 3.5712695811256165 3.4252829030300442 31.83597990397306 0 0 0
7210 444 7 -2.054839850138789 4.603868177373542 2.746908752233623 31.23011793331627 0 0 0
7211 444 7 -2.054839850138789 5.20493256801283 1.5942760471864719 31.849295544548255 0 0 0
7212 444 7 -2.054839850138789 2.974901682009924 4.630288033918644 31.291873589187176 0 0 0
7213 444 7 -2.054839850138789 1.8794657775152643 5.222374878282459 31.952704323171726 0 0 0
7215 444 5 -1.969456606770507 8.317654108557875 1.1029906714779805 33.36349134348699 0 0 0
7216 444 5 -1.969456606770507 11.778713317631832 6.035763107184709 35.01080743740285 0 0 0
7217 444 5 -1.969456606770507 11.768327714879938 6.397427782800937 31.399276137352338 0 0 0
7218 444 5 -1.969456606770507 11.801477061255992 4.408192025240151 33.4856539315919 0 0 0
7222 444 7 -2.054839850138789 9.63907338921235 4.7222621411049825 36.4824458241479 0 0 0
7223 444 7 -2.054839850138789 7.8460784657897005 3.1294928980234133 36.409801331308365 0 0 0
7224 444 7 -2.054839850138789 9.690630427192428 3.061358546986329 34.76510142725261 0 0 0
7226 444 7 -2.054839850138789 8.37978210467216 4.2655828347837215 36.9691048620374 0 0 0
7227 444 7 -2.054839850138789 8.47957339313155 2.552398375932599 35.28907902870934 0 0 0
7228 444 7 -2.054839850138789 7.825396588518578 1.5423116827920067 34.49383692388051 0 0 0
7229 444 7 -2.054839850138789 10.303612608937605 4.210183047493424 35.31169025456022 0 0 0
2672 444 2 3.448205301735216 -0.24154352542293464 5.463184149746985 33.98238505965378 0 0 0
2809 444 4 0.046 2.6001721533284665 6.969060733063045 37.103658093508294 0 0 0
7295 444 6 -2.550205301735216 -0.24038955289462904 5.466849678683834 33.97312635277391 0 0 0
2682 444 2 3.448205301735216 7.419664132812878 -0.3614148652786433 32.20760381596012 0 0 0
7207 444 6 -2.550205301735216 7.415970231961892 -0.35790077366400685 32.215185510259225 0 0 0
7208 444 6 -2.550205301735216 5.607341517520927 -0.3051905375196599 33.9186612140053 0 0 0
2666 444 2 3.448205301735216 7.320278903798894 5.310408183232251 26.42226093410806 0 0 0
6815 444 6 -2.550205301735216 7.311016508922094 5.313720913228618 26.419758363897312 0 0 0
2483 444 1 1.570456606770507 4.751166674980199 6.339359996052842 41.59744184179129 0 0 0
2516 444 1 1.570456606770507 6.770003837367142 0.9438436030859212 44.885849099819325 0 0 0
2624 444 1 1.570456606770507 6.692430766434838 4.330853652154913 41.336572653869844 0 0 0
2647 444 1 1.570456606770507 1.1565830721161363 6.615517972224441 44.84186910752178 0 0 0
2729 444 4 0.046 7.162231358734532 2.4734208393001467 43.05159983721264 0 0 0
2753 444 4 0.046 3.05380123568407 6.51956889559014 43.57717919632402 0 0 0
2892 444 3 2.406839850138789 7.80177830217039 4.795261668918306 41.82510662896221 0 0 0
2480 444 1 1.570456606770507 8.203481674247312 5.980482351627471 41.4684804448456 0 0 0
2660 444 1 1.570456606770507 11.779935365021233 6.126838640169671 44.830654428204234 0 0 0
2728 444 3 2.124839850138789 7.978701938473632 3.06503091474151 43.541475106434305 0 0 0
2742 444 3 2.124839850138789 9.683997361224103 4.7829599710997135 43.475355115362696 0 0 0
2743 444 4 0.046 10.012026050102545 5.7236230919707 43.04690863489362 0 0 0
2792 444 3 2.124839850138789 9.728532359121385 3.112847263036597 45.23051790540411 0 0 0
2891 444 3 1.935839850138789 8.488758671653388 4.227357161671769 42.97904426518748 0 0 0
2906 444 3 1.935839850138789 10.278672247583062 4.253273324510111 44.62030102669933 0 0 0
2907 444 3 2.406839850138789 11.386158494978194 4.945247954594712 45.24736962523657 0 0 0
2959 444 3 1.935839850138789 8.581511680235183 2.5041031278389663 44.66916105051421 0 0 0
2960 444 3 2.406839850138789 7.919931088664439 1.3673395117768659 45.359500339058116 0 0 0
8455 444 7 -2.054839850138789 2.7197669738165873 4.399973493248015 48.539381273353776 0 0 0
2470 444 1 1.570456606770507 4.644113601858767 6.1725274038767814 51.86288293326685 0 0 0
2498 444 1 1.570456606770507 1.1633205754393177 4.592023387253031 46.780287586672756 0 0 0
2510 444 1 1.570456606770507 6.1738512039759295 0.9511484850918549 48.44811430594752 0 0 0
2618 444 1 1.570456606770507 6.166007600351068 4.48947294329455 51.92920365793629 0 0 0
2634 444 1 1.570456606770507 4.632022853741934 1.0167036900511317 46.781226697023435 0 0 0
2650 444 1 1.570456606770507 1.06030347657064 6.1435774663036025 48.416246077915794 0 0 0
8466 444 5 -1.969456606770507 11.730644272147329 6.332549015645368 48.44799553395531 0 0 0
2710 444 3 2.124839850138789 4.974127888916116 3.233686487649161 49.686539330236755 0 0 0
2711 444 4 0.046 5.794689580553493 2.7442038916258538 50.179277834820816 0 0 0
2758 444 3 2.124839850138789 3.3491590573046857 5.033368041911937 49.59912525490791 0 0 0
2759 444 4 0.046 2.909465440725349 6.002869032045667 50.000407263632425 0 0 0
2780 444 3 2.124839850138789 3.284968158049404 3.207282472647357 48.00474862185301 0 0 0
2781 444 4 0.046 2.7638332808930324 2.7193411645153596 47.181431106612706 0 0 0
2872 444 3 1.934839850138789 4.4694204040003145 4.46029337284977 50.256032777697506 0 0 0
2873 444 3 2.406839850138789 5.114363932730286 5.0479156405595 51.411350892992274 0 0 0
2924 444 3 1.934839850138789 2.727565254152101 4.386309176392132 48.551376930361194 0 0 0
2925 444 3 2.406839850138789 1.5342199166628046 5.022116056099677 47.94717823516922 0 0 0
2947 444 3 1.934839850138789 4.407073404067735 2.630026777556112 48.56860455309871 0 0 0
2948 444 3 2.406839850138789 5.113717722303707 1.4601931780421211 47.909551798093375 0 0 0
8461 444 5 -1.969456606770507 8.303804827095144 6.459257332081168 52.07680331395318 0 0 0
8458 444 7 -2.054839850138789 5.0931085739068225 1.4889214600913756 47.934048460778385 0 0 0
2793 444 4 0.046 10.134446293474696 2.7586986946134724 46.23438064885153 0 0 0
2477 444 1 1.570456606770507 8.299841176134036 6.466234831227209 52.07956537124341 0 0 0
2488 444 1 1.570456606770507 11.856577877690862 4.435593140925325 46.366683247423644 0 0 0
2632 444 1 1.570456606770507 8.323665608309875 1.0081598937092857 46.489769504478964 0 0 0
2657 444 1 1.570456606770507 11.726609620816733 6.339540862053156 48.44576048481304 0 0 0
8457 444 7 -2.054839850138789 4.41678518691223 2.6226248601926474 48.556963493998396 0 0 0
2671 444 2 3.448205301735216 5.54467515792415 5.330337864135883 40.04620670051877 0 0 0
8465 444 5 -1.969456606770507 8.325112966266106 1.00696464040724 46.49532927667789 0 0 0
7914 444 5 -1.969456606770507 4.753849671695042 6.33930582440722 41.59566589167296 0 0 0
7915 444 5 -1.969456606770507 6.764711494133573 0.9474211615494788 44.8797182797675 0 0 0
7917 444 5 -1.969456606770507 6.683374487188956 4.333209863833491 41.33676955565733 0 0 0
7918 444 5 -1.969456606770507 1.1569851905874384 6.607989215057207 44.8360594309401 0 0 0
7921 444 7 -2.054839850138789 7.825619949873466 4.762021425693517 41.851131477579585 0 0 0
7922 444 5 -1.969456606770507 8.207778331329742 5.9845683439511586 41.46988896668144 0 0 0
7925 444 5 -1.969456606770507 11.783332069867123 6.135199481573004 44.83092185364664 0 0 0